LAMMPS (29 Oct 2020)
# 3d Lennard-Jones gas
units lj
dimension 3
boundary p p p
atom_style atomic

include e_run_settings.in
variable temp equal 5.0
variable density equal 0.05
variable outfile string e_datafile_T50_d005.txt

lattice fcc ${density}
lattice fcc 0.05
Lattice spacing in x,y,z = 4.3088694 4.3088694 4.3088694
region simbox block 0 10 0 10 0 10
create_box 1 simbox
Created orthogonal box = (0.0000000 0.0000000 0.0000000) to (43.088694 43.088694 43.088694)
  1 by 1 by 1 MPI processor grid
create_atoms 1 box
Created 4000 atoms
  create_atoms CPU = 0.001 seconds



mass 1 1.0
velocity all create ${temp} 87287
velocity all create 5 87287

pair_style lj/cut 3.0
pair_coeff 1 1 1.0 1.0 3.0


fix 1 all nve

thermo_style custom step temp etotal pe ke

compute ke all ke
compute pe all pe
compute press all pressure thermo_temp
variable etot equal c_ke+c_pe

variable Nevery equal 1 # interval of timesteps inclusion
variable Nrepeat equal 1 # number of recent timesteps to include
variable Nfreq equal 1 # calculate averages every this many timesteps

timestep 0.002
fix output_etotal all ave/time ${Nevery} ${Nrepeat} ${Nfreq} c_ke c_pe v_etot c_press file ${outfile}
fix output_etotal all ave/time 1 ${Nrepeat} ${Nfreq} c_ke c_pe v_etot c_press file ${outfile}
fix output_etotal all ave/time 1 1 ${Nfreq} c_ke c_pe v_etot c_press file ${outfile}
fix output_etotal all ave/time 1 1 1 c_ke c_pe v_etot c_press file ${outfile}
fix output_etotal all ave/time 1 1 1 c_ke c_pe v_etot c_press file e_datafile_T50_d005.txt
dump mydump all custom 10 1b.dump id type x y z vx vy vz


thermo 100
run 5000
Neighbor list info ...
  update every 1 steps, delay 10 steps, check yes
  max neighbors/atom: 2000, page size: 100000
  master list distance cutoff = 3.3
  ghost atom cutoff = 3.3
  binsize = 1.65, bins = 27 27 27
  1 neighbor lists, perpetual/occasional/extra = 1 0 0
  (1) pair lj/cut, perpetual
      attributes: half, newton on
      pair build: half/bin/atomonly/newton
      stencil: half/bin/3d/newton
      bin: standard
Per MPI rank memory allocation (min/avg/max) = 4.770 | 4.770 | 4.770 Mbytes
Step Temp TotEng PotEng KinEng 
       0            5     7.498125            0     7.498125 
     100    5.0320357    7.4853121 -0.060854509    7.5461666 
     200    5.0804175    7.4847629  -0.13395817    7.6187211 
     300    5.1122406    7.4839422  -0.18250167    7.6664438 
     400      5.13338    7.4835558  -0.21458921     7.698145 
     500    5.1503607    7.4832359  -0.24037382    7.7236097 
     600    5.1447555    7.4831906   -0.2320133    7.7152039 
     700    5.1435924     7.483095  -0.23036479    7.7134597 
     800    5.1507782    7.4831212   -0.2411146    7.7242358 
     900    5.1375923    7.4830862  -0.22137561    7.7044619 
    1000    5.1435118    7.4830205  -0.23031841    7.7133389 
    1100    5.1479305    7.4830738  -0.23689141    7.7199653 
    1200    5.1513815    7.4829894  -0.24215101    7.7251404 
    1300    5.1348641    7.4828861  -0.21748448    7.7003706 
    1400     5.135906    7.4830589  -0.21887413     7.701933 
    1500    5.1441022    7.4829479   -0.2312763    7.7142242 
    1600    5.1457109    7.4829829  -0.23365375    7.7166366 
    1700    5.1406645    7.4831233  -0.22594564     7.709069 
    1800    5.1424218    7.4830787  -0.22862566    7.7117043 
    1900    5.1502768    7.4830119  -0.24047189    7.7234838 
    2000    5.1382168     7.482992  -0.22240628    7.7053983 
    2100    5.1498759    7.4829263  -0.23995625    7.7228826 
    2200    5.1483011     7.482869  -0.23765212    7.7205211 
    2300    5.1507837    7.4828852  -0.24135883    7.7242441 
    2400    5.1513506    7.4828273  -0.24226687    7.7250942 
    2500     5.141285    7.4829139  -0.22708559    7.7099995 
    2600     5.132567    7.4828577  -0.21406803    7.6969257 
    2700    5.1479335    7.4828058  -0.23716397    7.7199697 
    2800    5.1333428    7.4828341  -0.21525507    7.6980892 
    2900    5.1468577    7.4828614  -0.23549508    7.7183564 
    3000    5.1562406    7.4828654   -0.2495618    7.7324272 
    3100    5.1490654    7.4828491  -0.23881818    7.7216673 
    3200    5.1590721    7.4828354  -0.25383814    7.7366735 
    3300    5.1468693    7.4828863  -0.23548752    7.7183739 
    3400    5.1556572    7.4828684   -0.2486841    7.7315525 
    3500    5.1513419    7.4826999  -0.24238128    7.7250812 
    3600    5.1499586    7.4828767  -0.24013003    7.7230067 
    3700    5.1413323    7.4828438  -0.22722656    7.7100704 
    3800    5.1453536    7.4827411  -0.23335985    7.7161009 
    3900    5.1465588     7.482848  -0.23506031    7.7179083 
    4000    5.1411438    7.4828853  -0.22690256    7.7097878 
    4100    5.1441978    7.4828414  -0.23152623    7.7143676 
    4200    5.1471324    7.4826489  -0.23611947    7.7187684 
    4300    5.1562221    7.4827683  -0.24963119    7.7323995 
    4400    5.1450042    7.4829555   -0.2326214    7.7155769 
    4500    5.1497831    7.4827717   -0.2399718    7.7227435 
    4600    5.1482553    7.4826022  -0.23785012    7.7204523 
    4700    5.1508351    7.4828554  -0.24146569    7.7243211 
    4800     5.152805    7.4828588  -0.24441644    7.7272753 
    4900    5.1396942    7.4827587  -0.22485523    7.7076139 
    5000    5.1506649    7.4827056  -0.24136021    7.7240658 
Loop time of 4.54468 on 1 procs for 5000 steps with 4000 atoms

Performance: 190112.310 tau/day, 1100.187 timesteps/s
96.9% CPU use with 1 MPI tasks x no OpenMP threads

MPI task timing breakdown:
Section |  min time  |  avg time  |  max time  |%varavg| %total
---------------------------------------------------------------
Pair    | 1.3668     | 1.3668     | 1.3668     |   0.0 | 30.07
Neigh   | 0.58933    | 0.58933    | 0.58933    |   0.0 | 12.97
Comm    | 0.074056   | 0.074056   | 0.074056   |   0.0 |  1.63
Output  | 2.2732     | 2.2732     | 2.2732     |   0.0 | 50.02
Modify  | 0.21277    | 0.21277    | 0.21277    |   0.0 |  4.68
Other   |            | 0.02851    |            |       |  0.63

Nlocal:        4000.00 ave        4000 max        4000 min
Histogram: 1 0 0 0 0 0 0 0 0 0
Nghost:        2110.00 ave        2110 max        2110 min
Histogram: 1 0 0 0 0 0 0 0 0 0
Neighs:        14911.0 ave       14911 max       14911 min
Histogram: 1 0 0 0 0 0 0 0 0 0

Total # of neighbors = 14911
Ave neighs/atom = 3.7277500
Neighbor list builds = 496
Dangerous builds = 475
Total wall time: 0:00:04
